3
* (null), Energy   -1000.0000000
O    -0.000000   -0.000223    0.000000   -0.000000    0.142104    0.000000
H    -0.756277   -0.587711    0.000000    0.847414   -1.127738    0.000000
H     0.756277   -0.587711    0.000000   -0.847414   -1.127738    0.000000
3
* Frequency(6) 1583.1051
O    -0.000000    0.015926    0.000000   -0.000000    0.142104    0.000000
H    -0.659973   -0.715873    0.000000    0.847414   -1.127738    0.000000
H     0.659973   -0.715873    0.000000   -0.847414   -1.127738    0.000000
3
* Frequency(6) 1583.1051
O    -0.000000    0.030325    0.000000   -0.000000    0.142104    0.000000
H    -0.574105   -0.830146    0.000000    0.847414   -1.127738    0.000000
H     0.574105   -0.830146    0.000000   -0.847414   -1.127738    0.000000
3
* Frequency(6) 1583.1051
O    -0.000000    0.041414    0.000000   -0.000000    0.142104    0.000000
H    -0.507978   -0.918148    0.000000    0.847414   -1.127738    0.000000
H     0.507978   -0.918148    0.000000   -0.847414   -1.127738    0.000000
3
* Frequency(6) 1583.1051
O    -0.000000    0.047991    0.000000   -0.000000    0.142104    0.000000
H    -0.468758   -0.970341    0.000000    0.847414   -1.127738    0.000000
H     0.468758   -0.970341    0.000000   -0.847414   -1.127738    0.000000
3
* Frequency(6) 1583.1051
O    -0.000000    0.049343    0.000000   -0.000000    0.142104    0.000000
H    -0.460695   -0.981071    0.000000    0.847414   -1.127738    0.000000
H     0.460695   -0.981071    0.000000   -0.847414   -1.127738    0.000000
3
* Frequency(6) 1583.1051
O    -0.000000    0.045324    0.000000   -0.000000    0.142104    0.000000
H    -0.484663   -0.949174    0.000000    0.847414   -1.127738    0.000000
H     0.484663   -0.949174    0.000000   -0.847414   -1.127738    0.000000
3
* Frequency(6) 1583.1051
O    -0.000000    0.036369    0.000000   -0.000000    0.142104    0.000000
H    -0.538065   -0.878107    0.000000    0.847414   -1.127738    0.000000
H     0.538065   -0.878107    0.000000   -0.847414   -1.127738    0.000000
3
* Frequency(6) 1583.1051
O    -0.000000    0.023449    0.000000   -0.000000    0.142104    0.000000
H    -0.615114   -0.775571    0.000000    0.847414   -1.127738    0.000000
H     0.615114   -0.775571    0.000000   -0.847414   -1.127738    0.000000
3
* Frequency(6) 1583.1051
O    -0.000000    0.007963    0.000000   -0.000000    0.142104    0.000000
H    -0.707459   -0.652678    0.000000    0.847414   -1.127738    0.000000
H     0.707459   -0.652678    0.000000   -0.847414   -1.127738    0.000000
3
* Frequency(6) 1583.1051
O     0.000000   -0.008410    0.000000   -0.000000    0.142104    0.000000
H    -0.805095   -0.522744    0.000000    0.847414   -1.127738    0.000000
H     0.805095   -0.522744    0.000000   -0.847414   -1.127738    0.000000
3
* Frequency(6) 1583.1051
O     0.000000   -0.023895    0.000000   -0.000000    0.142104    0.000000
H    -0.897441   -0.399851    0.000000    0.847414   -1.127738    0.000000
H     0.897441   -0.399851    0.000000   -0.847414   -1.127738    0.000000
3
* Frequency(6) 1583.1051
O     0.000000   -0.036816    0.000000   -0.000000    0.142104    0.000000
H    -0.974489   -0.297315    0.000000    0.847414   -1.127738    0.000000
H     0.974489   -0.297315    0.000000   -0.847414   -1.127738    0.000000
3
* Frequency(6) 1583.1051
O     0.000000   -0.045771    0.000000   -0.000000    0.142104    0.000000
H    -1.027891   -0.226248    0.000000    0.847414   -1.127738    0.000000
H     1.027891   -0.226248    0.000000   -0.847414   -1.127738    0.000000
3
* Frequency(6) 1583.1051
O     0.000000   -0.049790    0.000000   -0.000000    0.142104    0.000000
H    -1.051859   -0.194351    0.000000    0.847414   -1.127738    0.000000
H     1.051859   -0.194351    0.000000   -0.847414   -1.127738    0.000000
3
* Frequency(6) 1583.1051
O     0.000000   -0.048438    0.000000   -0.000000    0.142104    0.000000
H    -1.043796   -0.205081    0.000000    0.847414   -1.127738    0.000000
H     1.043796   -0.205081    0.000000   -0.847414   -1.127738    0.000000
3
* Frequency(6) 1583.1051
O     0.000000   -0.041861    0.000000   -0.000000    0.142104    0.000000
H    -1.004576   -0.257275    0.000000    0.847414   -1.127738    0.000000
H     1.004576   -0.257275    0.000000   -0.847414   -1.127738    0.000000
3
* Frequency(6) 1583.1051
O     0.000000   -0.030772    0.000000   -0.000000    0.142104    0.000000
H    -0.938449   -0.345276    0.000000    0.847414   -1.127738    0.000000
H     0.938449   -0.345276    0.000000   -0.847414   -1.127738    0.000000
3
* Frequency(6) 1583.1051
O     0.000000   -0.016373    0.000000   -0.000000    0.142104    0.000000
H    -0.852581   -0.459550    0.000000    0.847414   -1.127738    0.000000
H     0.852581   -0.459550    0.000000   -0.847414   -1.127738    0.000000
3
* Frequency(6) 1583.1051
O     0.000000   -0.000223    0.000000   -0.000000    0.142104    0.000000
H    -0.756277   -0.587711    0.000000    0.847414   -1.127738    0.000000
H     0.756277   -0.587711    0.000000   -0.847414   -1.127738    0.000000
